 Gaussian 09, Revision B.01,
 Gaussian 09:  EM64L-G09RevB.01 12-Aug-2010

 ------------------------------------------------------------------
 # rb3lyp/6-311++g(2d,p) geom=connectivity polar=optrot cphf=rdfreq
 ------------------------------------------------------------------

 -------------------
 Title Card Required
 -------------------
 Symbolic Z-matrix:
 Charge =  0 Multiplicity = 1

                         Standard orientation:
 ---------------------------------------------------------------------
 Center     Atomic      Atomic             Coordinates (Angstroms)
 Number     Number       Type             X           Y           Z
 ---------------------------------------------------------------------
      1          6           0       -1.895827   -1.587723    0.329902
      2          6           0       -0.437256   -1.143200    0.514978
      3          6           0        0.483264   -2.113214   -0.250829
      4          6           0        0.179861   -3.573438    0.106264
      5          6           0       -1.325820   -3.846850   -0.025952
      6          8           0       -2.047770   -2.911765    0.785747
      7          6           0       -1.709954   -5.259537    0.424942
      8          8           0       -1.342645   -6.240359   -0.523483
      9          8           0       -0.311831    0.176949   -0.019290
     10          8           0        1.828896   -1.737457    0.107837
     11          8           0        0.853444   -4.516285   -0.715573
     12          6           0       -4.632276    0.517930    0.239413
     13          6           0        2.842534   -2.002414   -0.752817
     14          6           0        0.468268    1.094391    0.646320
     15          6           0       -4.090495   -0.715821    0.641545
     16          6           0       -4.874978   -1.863576    0.607808
     17          6           0       -6.189332   -1.798161    0.154717
     18          6           0       -6.728612   -0.581960   -0.268359
     19          6           0       -5.946994    0.568894   -0.226716
     20          6           0        0.318067    2.453751    0.092663
     21          6           0        4.093253   -1.318512   -0.380880
     22          6           0       -0.779564    2.778525   -0.712326
     23          6           0       -1.036168    4.105276   -1.014933
     24          6           0       -0.137062    5.097273   -0.619936
     25          6           0        1.000505    4.766792    0.125811
     26          6           0        1.209026    3.450635    0.511454
     27          6           0        4.127037   -0.414698    0.691976
     28          6           0        5.322595    0.211733    0.999576
     29          6           0        6.476241   -0.055039    0.259125
     30          6           0        6.436993   -0.959478   -0.807317
     31          6           0        5.243910   -1.591208   -1.129763
     32          8           0        1.870876    5.739193    0.518659
     33          8           0       -2.156649    4.540320   -1.674891
     34          8           0        5.491947    1.119766    2.016788
     35          8           0        7.560909   -1.217860   -1.528459
     36          8           0        7.669461    0.543816    0.534008
     37          8           0       -0.352149    6.411098   -0.907791
     38          8           0       -2.763012   -0.760074    1.081762
     39          8           0        1.153207    0.795869    1.598210
     40          8           0        2.706063   -2.738866   -1.714836
     41          8           0       -8.007385   -0.452089   -0.724320
     42          6           0       -3.881088    1.813778    0.292648
     43          8           0       -4.120115    2.737708   -0.457344
     44          8           0       -2.943580    1.940742    1.238844
     45          1           0       -2.181115   -1.522244   -0.730395
     46          1           0       -0.182213   -1.140815    1.576227
     47          1           0        0.357355   -1.960251   -1.327754
     48          1           0        0.470837   -3.734794    1.153430
     49          1           0       -1.622324   -3.730568   -1.078272
     50          1           0       -2.795586   -5.311828    0.528585
     51          1           0       -1.268992   -5.463696    1.411218
     52          1           0       -0.412390   -6.100574   -0.757450
     53          1           0        1.552331   -4.083202   -1.239429
     54          1           0       -4.450350   -2.802834    0.934043
     55          1           0       -6.792987   -2.701692    0.137137
     56          1           0       -6.361564    1.514372   -0.553517
     57          1           0       -1.461915    2.013792   -1.048644
     58          1           0        2.048675    3.209951    1.150346
     59          1           0        3.228492   -0.199306    1.257240
     60          1           0        5.210637   -2.287353   -1.957941
     61          1           0        1.553883    6.596799    0.202526
     62          1           0       -2.924526    4.007048   -1.397668
     63          1           0        4.653315    1.306860    2.455498
     64          1           0        8.293191   -0.687478   -1.184250
     65          1           0        7.560553    1.160578    1.271642
     66          1           0       -1.209959    6.489309   -1.352769
     67          1           0       -8.463867   -1.302025   -0.713104
     68          1           0       -2.735573    1.079418    1.640481
 ---------------------------------------------------------------------

 SCF Done:  E(RB3LYP) =  -2322.90050897     A.U. after   21 cycles

 The electronic state is 1-A.
 Alpha  occ. eigenvalues --  -19.19839 -19.19069 -19.18936 -19.18928 -19.18589
 Alpha  occ. eigenvalues --  -19.18501 -19.18332 -19.17647 -19.17165 -19.16719
 Alpha  occ. eigenvalues --  -19.16290 -19.15757 -19.14005 -19.13954 -19.13451
 Alpha  occ. eigenvalues --  -19.12730 -19.12212 -10.33844 -10.32716 -10.32266
 Alpha  occ. eigenvalues --  -10.32095 -10.27217 -10.27202 -10.27162 -10.27107
 Alpha  occ. eigenvalues --  -10.25688 -10.25613 -10.25413 -10.25218 -10.25157
 Alpha  occ. eigenvalues --  -10.24788 -10.24622 -10.24384 -10.23045 -10.22861
 Alpha  occ. eigenvalues --  -10.21560 -10.21249 -10.20953 -10.20419 -10.19811
 Alpha  occ. eigenvalues --  -10.19018 -10.18785 -10.18441 -10.18388  -1.13975
 Alpha  occ. eigenvalues --   -1.13447  -1.12809  -1.12007  -1.10840  -1.09797
 Alpha  occ. eigenvalues --   -1.09647  -1.08485  -1.07289  -1.07044  -1.06907
 Alpha  occ. eigenvalues --   -1.05749  -1.04960  -1.04666  -1.04583  -1.04039
 Alpha  occ. eigenvalues --   -1.02466  -0.89741  -0.87790  -0.87108  -0.84110
 Alpha  occ. eigenvalues --   -0.81436  -0.80321  -0.78386  -0.77872  -0.76990
 Alpha  occ. eigenvalues --   -0.76479  -0.75722  -0.72928  -0.70479  -0.69172
 Alpha  occ. eigenvalues --   -0.68372  -0.66722  -0.66447  -0.65576  -0.65038
 Alpha  occ. eigenvalues --   -0.64835  -0.63759  -0.62825  -0.61624  -0.61270
 Alpha  occ. eigenvalues --   -0.60869  -0.58984  -0.58086  -0.57767  -0.57206
 Alpha  occ. eigenvalues --   -0.56451  -0.56237  -0.54633  -0.54144  -0.53566
 Alpha  occ. eigenvalues --   -0.53523  -0.52928  -0.52678  -0.52445  -0.52213
 Alpha  occ. eigenvalues --   -0.51361  -0.50644  -0.49858  -0.49255  -0.48896
 Alpha  occ. eigenvalues --   -0.48688  -0.48254  -0.47658  -0.47363  -0.47141
 Alpha  occ. eigenvalues --   -0.46771  -0.46330  -0.46096  -0.45895  -0.45408
 Alpha  occ. eigenvalues --   -0.45153  -0.44598  -0.44338  -0.43819  -0.43749
 Alpha  occ. eigenvalues --   -0.43534  -0.43184  -0.42474  -0.42214  -0.41647
 Alpha  occ. eigenvalues --   -0.41415  -0.41325  -0.40848  -0.40299  -0.39927
 Alpha  occ. eigenvalues --   -0.39661  -0.39526  -0.39261  -0.39012  -0.38822
 Alpha  occ. eigenvalues --   -0.38531  -0.38453  -0.37738  -0.37435  -0.37262
 Alpha  occ. eigenvalues --   -0.36979  -0.36476  -0.35626  -0.34928  -0.34484
 Alpha  occ. eigenvalues --   -0.33937  -0.33773  -0.32750  -0.32062  -0.31909
 Alpha  occ. eigenvalues --   -0.31722  -0.30421  -0.30145  -0.29682  -0.29465
 Alpha  occ. eigenvalues --   -0.28137  -0.25990  -0.24537  -0.23952  -0.23881
 Alpha  occ. eigenvalues --   -0.23253
 Alpha virt. eigenvalues --   -0.08231  -0.06742  -0.05845  -0.04092  -0.02915
 Alpha virt. eigenvalues --   -0.02612  -0.01430  -0.01211  -0.01007  -0.00640
 Alpha virt. eigenvalues --   -0.00587  -0.00379   0.00044   0.00328   0.00757

 Mulliken atomic charges:
              1
     1  C   -0.556317
     2  C   -0.168717
     3  C    0.421030
     4  C    0.216736
     5  C   -0.128627
     6  O   -0.332715
     7  C   -0.160244
     8  O   -0.353342
     9  O   -0.255474
    10  O   -0.322273
    11  O   -0.441027
    12  C    1.530123
    13  C    0.643400
    14  C    0.286621
    15  C    0.318542
    16  C   -0.329483
    17  C    0.066072
    18  C   -0.235891
    19  C   -0.409652
    20  C    0.767572
    21  C    0.669937
    22  C    0.077646
    23  C    0.033662
    24  C    0.209022
    25  C   -0.061944
    26  C   -0.689652
    27  C   -0.461147
    28  C    0.185038
    29  C    0.351689
    30  C   -0.071837
    31  C   -0.563241
    32  O   -0.442006
    33  O   -0.562181
    34  O   -0.502345
    35  O   -0.440092
    36  O   -0.516459
    37  O   -0.507194
    38  O   -0.491137
    39  O   -0.376903
    40  O   -0.440432
    41  O   -0.412745
    42  C   -0.640616
    43  O   -0.418517
    44  O   -0.261879
    45  H    0.166761
    46  H    0.243377
    47  H    0.226870
    48  H    0.172950
    49  H    0.149641
    50  H    0.139146
    51  H    0.139694
    52  H    0.286830
    53  H    0.346323
    54  H    0.204421
    55  H    0.132676
    56  H    0.204676
    57  H    0.169036
    58  H    0.182405
    59  H    0.243742
    60  H    0.194336
    61  H    0.310847
    62  H    0.370371
    63  H    0.308128
    64  H    0.306864
    65  H    0.321664
    66  H    0.316495
    67  H    0.282729
    68  H    0.357014
 Sum of Mulliken atomic charges =   0.00000

 Dipole moment (field-independent basis, Debye):
    X=             -3.4348    Y=              0.4522    Z=              2.2959  Tot=              4.1561
 Quadrupole moment (field-independent basis, Debye-Ang):
   XX=           -215.3090   YY=           -274.2021   ZZ=           -258.6540
   XY=             25.0523   XZ=              9.1738   YZ=             -6.4961

 Normal termination of Gaussian 09 at Mon May 31 19:29:44 2021.
