 Gaussian 09, Revision B.01,
 Gaussian 09:  EM64L-G09RevB.01 12-Aug-2010

 ------------------------------------------------------------------
 # rb3lyp/6-311++g(2d,p) geom=connectivity polar=optrot cphf=rdfreq
 ------------------------------------------------------------------

 -------------------
 Title Card Required
 -------------------
 Symbolic Z-matrix:
 Charge =  0 Multiplicity = 1

                         Standard orientation:
 ---------------------------------------------------------------------
 Center     Atomic      Atomic             Coordinates (Angstroms)
 Number     Number       Type             X           Y           Z
 ---------------------------------------------------------------------
      1          6           0       -1.891455   -1.605662    0.337121
      2          6           0       -0.435885   -1.151514    0.523962
      3          6           0        0.490040   -2.118798   -0.238616
      4          6           0        0.196224   -3.578672    0.127826
      5          6           0       -1.307366   -3.862984   -0.006223
      6          8           0       -2.037035   -2.927457    0.798824
      7          6           0       -1.683827   -5.275281    0.452444
      8          8           0       -1.305719   -6.259463   -0.488150
      9          8           0       -0.317773    0.168857   -0.012618
     10          8           0        1.834372   -1.733392    0.113595
     11          8           0        0.880639   -4.522079   -0.684361
     12          6           0       -4.629120    0.506064    0.246393
     13          6           0        2.844781   -1.992982   -0.752791
     14          6           0        0.462004    1.089188    0.649097
     15          6           0       -4.088687   -0.730854    0.627674
     16          6           0       -4.869096   -1.884302    0.557296
     17          6           0       -6.173552   -1.819050    0.087870
     18          6           0       -6.714269   -0.595940   -0.316934
     19          6           0       -5.941836    0.557021   -0.238168
     20          6           0        0.305589    2.448316    0.095697
     21          6           0        4.093947   -1.302371   -0.388041
     22          6           0       -0.800127    2.772484   -0.698308
     23          6           0       -1.061239    4.099341   -0.996605
     24          6           0       -0.159229    5.092025   -0.610585
     25          6           0        0.986428    4.762074    0.122961
     26          6           0        1.199633    3.445885    0.505921
     27          6           0        4.129913   -0.400264    0.686171
     28          6           0        5.323922    0.232573    0.986617
     29          6           0        6.473854   -0.025936    0.237529
     30          6           0        6.432442   -0.928604   -0.830299
     31          6           0        5.240915   -1.566945   -1.145398
     32          8           0        1.860087    5.734706    0.507348
     33          8           0       -2.190468    4.533544   -1.643748
     34          8           0        5.495175    1.139778    2.004326
     35          8           0        7.552706   -1.178924   -1.559873
     36          8           0        7.665451    0.579469    0.505110
     37          8           0       -0.378650    6.405941   -0.894975
     38          8           0       -2.766491   -0.778988    1.082457
     39          8           0        1.151306    0.794176    1.598716
     40          8           0        2.706549   -2.729933   -1.714072
     41          8           0       -8.000044   -0.600765   -0.771140
     42          6           0       -3.890650    1.805360    0.332425
     43          8           0       -4.150601    2.750427   -0.385781
     44          8           0       -2.942224    1.913356    1.268328
     45          1           0       -2.173931   -1.545903   -0.724227
     46          1           0       -0.182323   -1.145352    1.585532
     47          1           0        0.360208   -1.972783   -1.316035
     48          1           0        0.485438   -3.730947    1.176764
     49          1           0       -1.602762   -3.754631   -1.059685
     50          1           0       -2.769405   -5.334467    0.551997
     51          1           0       -1.245498   -5.469878    1.441844
     52          1           0       -0.375214   -6.115751   -0.718417
     53          1           0        1.567145   -4.085196   -1.220947
     54          1           0       -4.442922   -2.827106    0.871320
     55          1           0       -6.788153   -2.710263    0.033441
     56          1           0       -6.336073    1.520096   -0.546511
     57          1           0       -1.484432    2.006983   -1.029190
     58          1           0        2.045856    3.205630    1.136242
     59          1           0        3.234037   -0.191269    1.258000
     60          1           0        5.205957   -2.261960   -1.974450
     61          1           0        1.540155    6.592273    0.194100
     62          1           0       -2.955835    4.006804   -1.348185
     63          1           0        4.659455    1.317886    2.452194
     64          1           0        8.284472   -0.645445   -1.219366
     65          1           0        7.558635    1.192839    1.245862
     66          1           0       -1.240511    6.483398   -1.332111
     67          1           0       -8.278203    0.288024   -1.023991
     68          1           0       -2.724465    1.041978    1.643714
 ---------------------------------------------------------------------

 SCF Done:  E(RB3LYP) =  -2322.90128746     A.U. after   20 cycles

 The electronic state is 1-A.
 Alpha  occ. eigenvalues --  -19.19944 -19.19091 -19.19067 -19.19025 -19.18563
 Alpha  occ. eigenvalues --  -19.18527 -19.18367 -19.17777 -19.17165 -19.16742
 Alpha  occ. eigenvalues --  -19.16403 -19.15921 -19.14119 -19.14006 -19.13464
 Alpha  occ. eigenvalues --  -19.12812 -19.12132 -10.34025 -10.32732 -10.32317
 Alpha  occ. eigenvalues --  -10.32183 -10.27313 -10.27256 -10.27186 -10.27082
 Alpha  occ. eigenvalues --  -10.25718 -10.25640 -10.25410 -10.25243 -10.25129
 Alpha  occ. eigenvalues --  -10.24916 -10.24743 -10.24517 -10.22975 -10.22962
 Alpha  occ. eigenvalues --  -10.21407 -10.21131 -10.21043 -10.20445 -10.19931
 Alpha  occ. eigenvalues --  -10.19050 -10.18808 -10.18583 -10.18503  -1.14071
 Alpha  occ. eigenvalues --   -1.13533  -1.12884  -1.12080  -1.10867  -1.09924
 Alpha  occ. eigenvalues --   -1.09621  -1.08514  -1.07330  -1.07168  -1.06932
 Alpha  occ. eigenvalues --   -1.05886  -1.05100  -1.04700  -1.04583  -1.04106
 Alpha  occ. eigenvalues --   -1.02397  -0.89761  -0.87819  -0.87228  -0.84154
 Alpha  occ. eigenvalues --   -0.81472  -0.80360  -0.78416  -0.77834  -0.77024
 Alpha  occ. eigenvalues --   -0.76508  -0.75851  -0.72910  -0.70464  -0.68954
 Alpha  occ. eigenvalues --   -0.68879  -0.66811  -0.66525  -0.65757  -0.64982
 Alpha  occ. eigenvalues --   -0.64720  -0.64194  -0.62862  -0.61688  -0.61347
 Alpha  occ. eigenvalues --   -0.60083  -0.59068  -0.58197  -0.57889  -0.57235
 Alpha  occ. eigenvalues --   -0.56555  -0.56228  -0.54661  -0.54339  -0.53644
 Alpha  occ. eigenvalues --   -0.53592  -0.53259  -0.52811  -0.52447  -0.52335
 Alpha  occ. eigenvalues --   -0.51222  -0.50827  -0.49888  -0.49340  -0.48786
 Alpha  occ. eigenvalues --   -0.48678  -0.48368  -0.47743  -0.47532  -0.47238
 Alpha  occ. eigenvalues --   -0.46760  -0.46299  -0.46172  -0.46054  -0.45443
 Alpha  occ. eigenvalues --   -0.45192  -0.44612  -0.44307  -0.43853  -0.43708
 Alpha  occ. eigenvalues --   -0.43384  -0.43081  -0.42546  -0.41967  -0.41722
 Alpha  occ. eigenvalues --   -0.41571  -0.41427  -0.41026  -0.40442  -0.40048
 Alpha  occ. eigenvalues --   -0.39722  -0.39562  -0.39269  -0.39050  -0.38863
 Alpha  occ. eigenvalues --   -0.38657  -0.38548  -0.37788  -0.37472  -0.37266
 Alpha  occ. eigenvalues --   -0.37064  -0.36591  -0.35691  -0.34979  -0.34541
 Alpha  occ. eigenvalues --   -0.33973  -0.33793  -0.32867  -0.32093  -0.32050
 Alpha  occ. eigenvalues --   -0.31748  -0.30476  -0.30172  -0.29674  -0.29474
 Alpha  occ. eigenvalues --   -0.28073  -0.26015  -0.24565  -0.24040  -0.23972
 Alpha  occ. eigenvalues --   -0.23375
 Alpha virt. eigenvalues --   -0.08384  -0.06764  -0.05936  -0.04095  -0.02650
 Alpha virt. eigenvalues --   -0.02545  -0.01529  -0.01244  -0.01087  -0.00766
 Alpha virt. eigenvalues --   -0.00581  -0.00349   0.00065   0.00326   0.00813

 Mulliken atomic charges:
              1
     1  C   -0.549047
     2  C   -0.179625
     3  C    0.418188
     4  C    0.196733
     5  C   -0.124618
     6  O   -0.331580
     7  C   -0.157547
     8  O   -0.353885
     9  O   -0.257732
    10  O   -0.320106
    11  O   -0.439551
    12  C    1.368008
    13  C    0.646998
    14  C    0.310611
    15  C    0.280160
    16  C   -0.228082
    17  C    0.234213
    18  C   -0.256680
    19  C   -0.598613
    20  C    0.792165
    21  C    0.663968
    22  C    0.074855
    23  C    0.020193
    24  C    0.204869
    25  C   -0.074341
    26  C   -0.704626
    27  C   -0.465206
    28  C    0.188729
    29  C    0.345575
    30  C   -0.068580
    31  C   -0.552776
    32  O   -0.441569
    33  O   -0.559859
    34  O   -0.502358
    35  O   -0.440230
    36  O   -0.516293
    37  O   -0.506930
    38  O   -0.487712
    39  O   -0.375734
    40  O   -0.439791
    41  O   -0.419800
    42  C   -0.485131
    43  O   -0.432234
    44  O   -0.259178
    45  H    0.164791
    46  H    0.242797
    47  H    0.226741
    48  H    0.172972
    49  H    0.149317
    50  H    0.140899
    51  H    0.139461
    52  H    0.286252
    53  H    0.344488
    54  H    0.206989
    55  H    0.173027
    56  H    0.174672
    57  H    0.166732
    58  H    0.181496
    59  H    0.243822
    60  H    0.194591
    61  H    0.310757
    62  H    0.369457
    63  H    0.308191
    64  H    0.306914
    65  H    0.321589
    66  H    0.316183
    67  H    0.283071
    68  H    0.358940
 Sum of Mulliken atomic charges =   0.00000

 Dipole moment (field-independent basis, Debye):
    X=             -3.0490    Y=              2.8678    Z=              1.8302  Tot=              4.5684
 Quadrupole moment (field-independent basis, Debye-Ang):
   XX=           -220.5702   YY=           -276.7351   ZZ=           -257.7678
   XY=              2.4458   XZ=             12.9635   YZ=             -8.8443

 Normal termination of Gaussian 09 at Thu May 20 19:12:48 2021.
